+ 0.1 0 4 ping 50000 ------- 0 0.0 5.0 -1 0
- 0.1 0 4 ping 50000 ------- 0 0.0 5.0 -1 0
+ 0.1 2 4 ping 30000 ------- 0 2.0 3.0 -1 1
- 0.1 2 4 ping 30000 ------- 0 2.0 3.0 -1 1
r 0.10124 2 4 ping 30000 ------- 0 2.0 3.0 -1 1
+ 0.10124 4 3 ping 30000 ------- 0 2.0 3.0 -1 1
- 0.10124 4 3 ping 30000 ------- 0 2.0 3.0 -1 1
r 0.1018 0 4 ping 50000 ------- 0 0.0 5.0 -1 0
+ 0.1018 4 5 ping 50000 ------- 0 0.0 5.0 -1 0
- 0.1018 4 5 ping 50000 ------- 0 0.0 5.0 -1 0
r 0.10464 4 3 ping 30000 ------- 0 2.0 3.0 -1 1
+ 0.10464 3 4 ping 64 ------- 0 3.0 2.0 -1 2
- 0.10464 3 4 ping 64 ------- 0 3.0 2.0 -1 2
r 0.105645 3 4 ping 64 ------- 0 3.0 2.0 -1 2
+ 0.105645 4 2 ping 64 ------- 0 3.0 2.0 -1 2
- 0.105645 4 2 ping 64 ------- 0 3.0 2.0 -1 2
r 0.106646 4 2 ping 64 ------- 0 3.0 2.0 -1 2
+ 0.2 0 4 ping 50000 ------- 0 0.0 5.0 -1 3
- 0.2 0 4 ping 50000 ------- 0 0.0 5.0 -1 3
+ 0.2 2 4 ping 30000 ------- 0 2.0 3.0 -1 4
- 0.2 2 4 ping 30000 ------- 0 2.0 3.0 -1 4
r 0.20124 2 4 ping 30000 ------- 0 2.0 3.0 -1 4
+ 0.20124 4 3 ping 30000 ------- 0 2.0 3.0 -1 4
- 0.20124 4 3 ping 30000 ------- 0 2.0 3.0 -1 4
r 0.2018 0 4 ping 50000 ------- 0 0.0 5.0 -1 3
+ 0.2018 4 5 ping 50000 ------- 0 0.0 5.0 -1 3
r 0.20464 4 3 ping 30000 ------- 0 2.0 3.0 -1 4
+ 0.20464 3 4 ping 64 ------- 0 3.0 2.0 -1 5
- 0.20464 3 4 ping 64 ------- 0 3.0 2.0 -1 5
r 0.205645 3 4 ping 64 ------- 0 3.0 2.0 -1 5
+ 0.205645 4 2 ping 64 ------- 0 3.0 2.0 -1 5
- 0.205645 4 2 ping 64 ------- 0 3.0 2.0 -1 5
r 0.206646 4 2 ping 64 ------- 0 3.0 2.0 -1 5
+ 0.3 0 4 ping 50000 ------- 0 0.0 5.0 -1 6
- 0.3 0 4 ping 50000 ------- 0 0.0 5.0 -1 6
+ 0.3 2 4 ping 30000 ------- 0 2.0 3.0 -1 7
- 0.3 2 4 ping 30000 ------- 0 2.0 3.0 -1 7
r 0.30124 2 4 ping 30000 ------- 0 2.0 3.0 -1 7
+ 0.30124 4 3 ping 30000 ------- 0 2.0 3.0 -1 7
- 0.30124 4 3 ping 30000 ------- 0 2.0 3.0 -1 7
r 0.3018 0 4 ping 50000 ------- 0 0.0 5.0 -1 6
+ 0.3018 4 5 ping 50000 ------- 0 0.0 5.0 -1 6
d 0.3018 4 5 ping 50000 ------- 0 0.0 5.0 -1 6
r 0.30464 4 3 ping 30000 ------- 0 2.0 3.0 -1 7
+ 0.30464 3 4 ping 64 ------- 0 3.0 2.0 -1 8
- 0.30464 3 4 ping 64 ------- 0 3.0 2.0 -1 8
r 0.305645 3 4 ping 64 ------- 0 3.0 2.0 -1 8
+ 0.305645 4 2 ping 64 ------- 0 3.0 2.0 -1 8
- 0.305645 4 2 ping 64 ------- 0 3.0 2.0 -1 8
r 0.306646 4 2 ping 64 ------- 0 3.0 2.0 -1 8
+ 0.4 0 4 ping 50000 ------- 0 0.0 5.0 -1 9
- 0.4 0 4 ping 50000 ------- 0 0.0 5.0 -1 9
+ 0.4 2 4 ping 30000 ------- 0 2.0 3.0 -1 10
- 0.4 2 4 ping 30000 ------- 0 2.0 3.0 -1 10
r 0.40124 2 4 ping 30000 ------- 0 2.0 3.0 -1 10
+ 0.40124 4 3 ping 30000 ------- 0 2.0 3.0 -1 10
- 0.40124 4 3 ping 30000 ------- 0 2.0 3.0 -1 10
r 0.4018 0 4 ping 50000 ------- 0 0.0 5.0 -1 9
+ 0.4018 4 5 ping 50000 ------- 0 0.0 5.0 -1 9
d 0.4018 4 5 ping 50000 ------- 0 0.0 5.0 -1 9
r 0.40464 4 3 ping 30000 ------- 0 2.0 3.0 -1 10
+ 0.40464 3 4 ping 64 ------- 0 3.0 2.0 -1 11
- 0.40464 3 4 ping 64 ------- 0 3.0 2.0 -1 11
r 0.405645 3 4 ping 64 ------- 0 3.0 2.0 -1 11
+ 0.405645 4 2 ping 64 ------- 0 3.0 2.0 -1 11
- 0.405645 4 2 ping 64 ------- 0 3.0 2.0 -1 11
r 0.406646 4 2 ping 64 ------- 0 3.0 2.0 -1 11
+ 0.5 0 4 ping 50000 ------- 0 0.0 5.0 -1 12
- 0.5 0 4 ping 50000 ------- 0 0.0 5.0 -1 12
+ 0.5 2 4 ping 30000 ------- 0 2.0 3.0 -1 13
- 0.5 2 4 ping 30000 ------- 0 2.0 3.0 -1 13
r 0.50124 2 4 ping 30000 ------- 0 2.0 3.0 -1 13
+ 0.50124 4 3 ping 30000 ------- 0 2.0 3.0 -1 13
- 0.50124 4 3 ping 30000 ------- 0 2.0 3.0 -1 13
r 0.5018 0 4 ping 50000 ------- 0 0.0 5.0 -1 12
+ 0.5018 4 5 ping 50000 ------- 0 0.0 5.0 -1 12
d 0.5018 4 5 ping 50000 ------- 0 0.0 5.0 -1 12
r 0.50464 4 3 ping 30000 ------- 0 2.0 3.0 -1 13
+ 0.50464 3 4 ping 64 ------- 0 3.0 2.0 -1 14
- 0.50464 3 4 ping 64 ------- 0 3.0 2.0 -1 14
r 0.505645 3 4 ping 64 ------- 0 3.0 2.0 -1 14
+ 0.505645 4 2 ping 64 ------- 0 3.0 2.0 -1 14
- 0.505645 4 2 ping 64 ------- 0 3.0 2.0 -1 14
r 0.506646 4 2 ping 64 ------- 0 3.0 2.0 -1 14
+ 0.6 0 4 ping 50000 ------- 0 0.0 5.0 -1 15
- 0.6 0 4 ping 50000 ------- 0 0.0 5.0 -1 15
+ 0.6 2 4 ping 30000 ------- 0 2.0 3.0 -1 16
- 0.6 2 4 ping 30000 ------- 0 2.0 3.0 -1 16
r 0.60124 2 4 ping 30000 ------- 0 2.0 3.0 -1 16
+ 0.60124 4 3 ping 30000 ------- 0 2.0 3.0 -1 16
- 0.60124 4 3 ping 30000 ------- 0 2.0 3.0 -1 16
r 0.6018 0 4 ping 50000 ------- 0 0.0 5.0 -1 15
+ 0.6018 4 5 ping 50000 ------- 0 0.0 5.0 -1 15
d 0.6018 4 5 ping 50000 ------- 0 0.0 5.0 -1 15
r 0.60464 4 3 ping 30000 ------- 0 2.0 3.0 -1 16
+ 0.60464 3 4 ping 64 ------- 0 3.0 2.0 -1 17
- 0.60464 3 4 ping 64 ------- 0 3.0 2.0 -1 17
r 0.605645 3 4 ping 64 ------- 0 3.0 2.0 -1 17
+ 0.605645 4 2 ping 64 ------- 0 3.0 2.0 -1 17
- 0.605645 4 2 ping 64 ------- 0 3.0 2.0 -1 17
r 0.606646 4 2 ping 64 ------- 0 3.0 2.0 -1 17
+ 0.7 0 4 ping 50000 ------- 0 0.0 5.0 -1 18
- 0.7 0 4 ping 50000 ------- 0 0.0 5.0 -1 18
+ 0.7 2 4 ping 30000 ------- 0 2.0 3.0 -1 19
- 0.7 2 4 ping 30000 ------- 0 2.0 3.0 -1 19
r 0.70124 2 4 ping 30000 ------- 0 2.0 3.0 -1 19
+ 0.70124 4 3 ping 30000 ------- 0 2.0 3.0 -1 19
- 0.70124 4 3 ping 30000 ------- 0 2.0 3.0 -1 19
r 0.7018 0 4 ping 50000 ------- 0 0.0 5.0 -1 18
+ 0.7018 4 5 ping 50000 ------- 0 0.0 5.0 -1 18
d 0.7018 4 5 ping 50000 ------- 0 0.0 5.0 -1 18
r 0.70464 4 3 ping 30000 ------- 0 2.0 3.0 -1 19
+ 0.70464 3 4 ping 64 ------- 0 3.0 2.0 -1 20
- 0.70464 3 4 ping 64 ------- 0 3.0 2.0 -1 20
r 0.705645 3 4 ping 64 ------- 0 3.0 2.0 -1 20
+ 0.705645 4 2 ping 64 ------- 0 3.0 2.0 -1 20
- 0.705645 4 2 ping 64 ------- 0 3.0 2.0 -1 20
r 0.706646 4 2 ping 64 ------- 0 3.0 2.0 -1 20
+ 0.8 0 4 ping 50000 ------- 0 0.0 5.0 -1 21
- 0.8 0 4 ping 50000 ------- 0 0.0 5.0 -1 21
+ 0.8 2 4 ping 30000 ------- 0 2.0 3.0 -1 22
- 0.8 2 4 ping 30000 ------- 0 2.0 3.0 -1 22
r 0.80124 2 4 ping 30000 ------- 0 2.0 3.0 -1 22
+ 0.80124 4 3 ping 30000 ------- 0 2.0 3.0 -1 22
- 0.80124 4 3 ping 30000 ------- 0 2.0 3.0 -1 22
r 0.8018 0 4 ping 50000 ------- 0 0.0 5.0 -1 21
+ 0.8018 4 5 ping 50000 ------- 0 0.0 5.0 -1 21
d 0.8018 4 5 ping 50000 ------- 0 0.0 5.0 -1 21
r 0.80464 4 3 ping 30000 ------- 0 2.0 3.0 -1 22
+ 0.80464 3 4 ping 64 ------- 0 3.0 2.0 -1 23
- 0.80464 3 4 ping 64 ------- 0 3.0 2.0 -1 23
r 0.805645 3 4 ping 64 ------- 0 3.0 2.0 -1 23
+ 0.805645 4 2 ping 64 ------- 0 3.0 2.0 -1 23
- 0.805645 4 2 ping 64 ------- 0 3.0 2.0 -1 23
r 0.806646 4 2 ping 64 ------- 0 3.0 2.0 -1 23
+ 0.9 0 4 ping 50000 ------- 0 0.0 5.0 -1 24
- 0.9 0 4 ping 50000 ------- 0 0.0 5.0 -1 24
+ 0.9 2 4 ping 30000 ------- 0 2.0 3.0 -1 25
- 0.9 2 4 ping 30000 ------- 0 2.0 3.0 -1 25
r 0.90124 2 4 ping 30000 ------- 0 2.0 3.0 -1 25
+ 0.90124 4 3 ping 30000 ------- 0 2.0 3.0 -1 25
- 0.90124 4 3 ping 30000 ------- 0 2.0 3.0 -1 25
r 0.9018 0 4 ping 50000 ------- 0 0.0 5.0 -1 24
+ 0.9018 4 5 ping 50000 ------- 0 0.0 5.0 -1 24
d 0.9018 4 5 ping 50000 ------- 0 0.0 5.0 -1 24
r 0.90464 4 3 ping 30000 ------- 0 2.0 3.0 -1 25
+ 0.90464 3 4 ping 64 ------- 0 3.0 2.0 -1 26
- 0.90464 3 4 ping 64 ------- 0 3.0 2.0 -1 26
r 0.905645 3 4 ping 64 ------- 0 3.0 2.0 -1 26
+ 0.905645 4 2 ping 64 ------- 0 3.0 2.0 -1 26
- 0.905645 4 2 ping 64 ------- 0 3.0 2.0 -1 26
r 0.906646 4 2 ping 64 ------- 0 3.0 2.0 -1 26
+ 1 0 4 ping 50000 ------- 0 0.0 5.0 -1 27
- 1 0 4 ping 50000 ------- 0 0.0 5.0 -1 27
+ 1 2 4 ping 30000 ------- 0 2.0 3.0 -1 28
- 1 2 4 ping 30000 ------- 0 2.0 3.0 -1 28
r 1.00124 2 4 ping 30000 ------- 0 2.0 3.0 -1 28
+ 1.00124 4 3 ping 30000 ------- 0 2.0 3.0 -1 28
- 1.00124 4 3 ping 30000 ------- 0 2.0 3.0 -1 28
r 1.0018 0 4 ping 50000 ------- 0 0.0 5.0 -1 27
+ 1.0018 4 5 ping 50000 ------- 0 0.0 5.0 -1 27
d 1.0018 4 5 ping 50000 ------- 0 0.0 5.0 -1 27
r 1.00464 4 3 ping 30000 ------- 0 2.0 3.0 -1 28
+ 1.00464 3 4 ping 64 ------- 0 3.0 2.0 -1 29
- 1.00464 3 4 ping 64 ------- 0 3.0 2.0 -1 29
r 1.005645 3 4 ping 64 ------- 0 3.0 2.0 -1 29
+ 1.005645 4 2 ping 64 ------- 0 3.0 2.0 -1 29
- 1.005645 4 2 ping 64 ------- 0 3.0 2.0 -1 29
r 1.006646 4 2 ping 64 ------- 0 3.0 2.0 -1 29
+ 1.1 0 4 ping 50000 ------- 0 0.0 5.0 -1 30
- 1.1 0 4 ping 50000 ------- 0 0.0 5.0 -1 30
+ 1.1 2 4 ping 30000 ------- 0 2.0 3.0 -1 31
- 1.1 2 4 ping 30000 ------- 0 2.0 3.0 -1 31
r 1.10124 2 4 ping 30000 ------- 0 2.0 3.0 -1 31
+ 1.10124 4 3 ping 30000 ------- 0 2.0 3.0 -1 31
- 1.10124 4 3 ping 30000 ------- 0 2.0 3.0 -1 31
r 1.1018 0 4 ping 50000 ------- 0 0.0 5.0 -1 30
+ 1.1018 4 5 ping 50000 ------- 0 0.0 5.0 -1 30
d 1.1018 4 5 ping 50000 ------- 0 0.0 5.0 -1 30
r 1.10464 4 3 ping 30000 ------- 0 2.0 3.0 -1 31
+ 1.10464 3 4 ping 64 ------- 0 3.0 2.0 -1 32
- 1.10464 3 4 ping 64 ------- 0 3.0 2.0 -1 32
r 1.105645 3 4 ping 64 ------- 0 3.0 2.0 -1 32
+ 1.105645 4 2 ping 64 ------- 0 3.0 2.0 -1 32
- 1.105645 4 2 ping 64 ------- 0 3.0 2.0 -1 32
r 1.106646 4 2 ping 64 ------- 0 3.0 2.0 -1 32
+ 1.2 0 4 ping 50000 ------- 0 0.0 5.0 -1 33
- 1.2 0 4 ping 50000 ------- 0 0.0 5.0 -1 33
+ 1.2 2 4 ping 30000 ------- 0 2.0 3.0 -1 34
- 1.2 2 4 ping 30000 ------- 0 2.0 3.0 -1 34
r 1.20124 2 4 ping 30000 ------- 0 2.0 3.0 -1 34
+ 1.20124 4 3 ping 30000 ------- 0 2.0 3.0 -1 34
- 1.20124 4 3 ping 30000 ------- 0 2.0 3.0 -1 34
r 1.2018 0 4 ping 50000 ------- 0 0.0 5.0 -1 33
+ 1.2018 4 5 ping 50000 ------- 0 0.0 5.0 -1 33
d 1.2018 4 5 ping 50000 ------- 0 0.0 5.0 -1 33
r 1.20464 4 3 ping 30000 ------- 0 2.0 3.0 -1 34
+ 1.20464 3 4 ping 64 ------- 0 3.0 2.0 -1 35
- 1.20464 3 4 ping 64 ------- 0 3.0 2.0 -1 35
r 1.205645 3 4 ping 64 ------- 0 3.0 2.0 -1 35
+ 1.205645 4 2 ping 64 ------- 0 3.0 2.0 -1 35
- 1.205645 4 2 ping 64 ------- 0 3.0 2.0 -1 35
r 1.206646 4 2 ping 64 ------- 0 3.0 2.0 -1 35
+ 1.3 0 4 ping 50000 ------- 0 0.0 5.0 -1 36
- 1.3 0 4 ping 50000 ------- 0 0.0 5.0 -1 36
+ 1.3 2 4 ping 30000 ------- 0 2.0 3.0 -1 37
- 1.3 2 4 ping 30000 ------- 0 2.0 3.0 -1 37
r 1.30124 2 4 ping 30000 ------- 0 2.0 3.0 -1 37
+ 1.30124 4 3 ping 30000 ------- 0 2.0 3.0 -1 37
- 1.30124 4 3 ping 30000 ------- 0 2.0 3.0 -1 37
r 1.3018 0 4 ping 50000 ------- 0 0.0 5.0 -1 36
+ 1.3018 4 5 ping 50000 ------- 0 0.0 5.0 -1 36
d 1.3018 4 5 ping 50000 ------- 0 0.0 5.0 -1 36
r 1.30464 4 3 ping 30000 ------- 0 2.0 3.0 -1 37
+ 1.30464 3 4 ping 64 ------- 0 3.0 2.0 -1 38
- 1.30464 3 4 ping 64 ------- 0 3.0 2.0 -1 38
r 1.305645 3 4 ping 64 ------- 0 3.0 2.0 -1 38
+ 1.305645 4 2 ping 64 ------- 0 3.0 2.0 -1 38
- 1.305645 4 2 ping 64 ------- 0 3.0 2.0 -1 38
r 1.306646 4 2 ping 64 ------- 0 3.0 2.0 -1 38
+ 1.4 0 4 ping 50000 ------- 0 0.0 5.0 -1 39
- 1.4 0 4 ping 50000 ------- 0 0.0 5.0 -1 39
+ 1.4 2 4 ping 30000 ------- 0 2.0 3.0 -1 40
- 1.4 2 4 ping 30000 ------- 0 2.0 3.0 -1 40
r 1.40124 2 4 ping 30000 ------- 0 2.0 3.0 -1 40
+ 1.40124 4 3 ping 30000 ------- 0 2.0 3.0 -1 40
- 1.40124 4 3 ping 30000 ------- 0 2.0 3.0 -1 40
r 1.4018 0 4 ping 50000 ------- 0 0.0 5.0 -1 39
+ 1.4018 4 5 ping 50000 ------- 0 0.0 5.0 -1 39
d 1.4018 4 5 ping 50000 ------- 0 0.0 5.0 -1 39
r 1.40464 4 3 ping 30000 ------- 0 2.0 3.0 -1 40
+ 1.40464 3 4 ping 64 ------- 0 3.0 2.0 -1 41
- 1.40464 3 4 ping 64 ------- 0 3.0 2.0 -1 41
r 1.405645 3 4 ping 64 ------- 0 3.0 2.0 -1 41
+ 1.405645 4 2 ping 64 ------- 0 3.0 2.0 -1 41
- 1.405645 4 2 ping 64 ------- 0 3.0 2.0 -1 41
r 1.406646 4 2 ping 64 ------- 0 3.0 2.0 -1 41
+ 1.5 0 4 ping 50000 ------- 0 0.0 5.0 -1 42
- 1.5 0 4 ping 50000 ------- 0 0.0 5.0 -1 42
+ 1.5 2 4 ping 30000 ------- 0 2.0 3.0 -1 43
- 1.5 2 4 ping 30000 ------- 0 2.0 3.0 -1 43
r 1.50124 2 4 ping 30000 ------- 0 2.0 3.0 -1 43
+ 1.50124 4 3 ping 30000 ------- 0 2.0 3.0 -1 43
- 1.50124 4 3 ping 30000 ------- 0 2.0 3.0 -1 43
r 1.5018 0 4 ping 50000 ------- 0 0.0 5.0 -1 42
+ 1.5018 4 5 ping 50000 ------- 0 0.0 5.0 -1 42
d 1.5018 4 5 ping 50000 ------- 0 0.0 5.0 -1 42
r 1.50464 4 3 ping 30000 ------- 0 2.0 3.0 -1 43
+ 1.50464 3 4 ping 64 ------- 0 3.0 2.0 -1 44
- 1.50464 3 4 ping 64 ------- 0 3.0 2.0 -1 44
r 1.505645 3 4 ping 64 ------- 0 3.0 2.0 -1 44
+ 1.505645 4 2 ping 64 ------- 0 3.0 2.0 -1 44
- 1.505645 4 2 ping 64 ------- 0 3.0 2.0 -1 44
r 1.506646 4 2 ping 64 ------- 0 3.0 2.0 -1 44
+ 1.6 0 4 ping 50000 ------- 0 0.0 5.0 -1 45
- 1.6 0 4 ping 50000 ------- 0 0.0 5.0 -1 45
+ 1.6 2 4 ping 30000 ------- 0 2.0 3.0 -1 46
- 1.6 2 4 ping 30000 ------- 0 2.0 3.0 -1 46
r 1.60124 2 4 ping 30000 ------- 0 2.0 3.0 -1 46
+ 1.60124 4 3 ping 30000 ------- 0 2.0 3.0 -1 46
- 1.60124 4 3 ping 30000 ------- 0 2.0 3.0 -1 46
r 1.6018 0 4 ping 50000 ------- 0 0.0 5.0 -1 45
+ 1.6018 4 5 ping 50000 ------- 0 0.0 5.0 -1 45
d 1.6018 4 5 ping 50000 ------- 0 0.0 5.0 -1 45
r 1.60464 4 3 ping 30000 ------- 0 2.0 3.0 -1 46
+ 1.60464 3 4 ping 64 ------- 0 3.0 2.0 -1 47
- 1.60464 3 4 ping 64 ------- 0 3.0 2.0 -1 47
r 1.605645 3 4 ping 64 ------- 0 3.0 2.0 -1 47
+ 1.605645 4 2 ping 64 ------- 0 3.0 2.0 -1 47
- 1.605645 4 2 ping 64 ------- 0 3.0 2.0 -1 47
r 1.606646 4 2 ping 64 ------- 0 3.0 2.0 -1 47
+ 1.7 0 4 ping 50000 ------- 0 0.0 5.0 -1 48
- 1.7 0 4 ping 50000 ------- 0 0.0 5.0 -1 48
+ 1.7 2 4 ping 30000 ------- 0 2.0 3.0 -1 49
- 1.7 2 4 ping 30000 ------- 0 2.0 3.0 -1 49
r 1.70124 2 4 ping 30000 ------- 0 2.0 3.0 -1 49
+ 1.70124 4 3 ping 30000 ------- 0 2.0 3.0 -1 49
- 1.70124 4 3 ping 30000 ------- 0 2.0 3.0 -1 49
r 1.7018 0 4 ping 50000 ------- 0 0.0 5.0 -1 48
+ 1.7018 4 5 ping 50000 ------- 0 0.0 5.0 -1 48
d 1.7018 4 5 ping 50000 ------- 0 0.0 5.0 -1 48
r 1.70464 4 3 ping 30000 ------- 0 2.0 3.0 -1 49
+ 1.70464 3 4 ping 64 ------- 0 3.0 2.0 -1 50
- 1.70464 3 4 ping 64 ------- 0 3.0 2.0 -1 50
r 1.705645 3 4 ping 64 ------- 0 3.0 2.0 -1 50
+ 1.705645 4 2 ping 64 ------- 0 3.0 2.0 -1 50
- 1.705645 4 2 ping 64 ------- 0 3.0 2.0 -1 50
r 1.706646 4 2 ping 64 ------- 0 3.0 2.0 -1 50
+ 1.8 0 4 ping 50000 ------- 0 0.0 5.0 -1 51
- 1.8 0 4 ping 50000 ------- 0 0.0 5.0 -1 51
+ 1.8 2 4 ping 30000 ------- 0 2.0 3.0 -1 52
- 1.8 2 4 ping 30000 ------- 0 2.0 3.0 -1 52
r 1.80124 2 4 ping 30000 ------- 0 2.0 3.0 -1 52
+ 1.80124 4 3 ping 30000 ------- 0 2.0 3.0 -1 52
- 1.80124 4 3 ping 30000 ------- 0 2.0 3.0 -1 52
r 1.8018 0 4 ping 50000 ------- 0 0.0 5.0 -1 51
+ 1.8018 4 5 ping 50000 ------- 0 0.0 5.0 -1 51
d 1.8018 4 5 ping 50000 ------- 0 0.0 5.0 -1 51
r 1.80464 4 3 ping 30000 ------- 0 2.0 3.0 -1 52
+ 1.80464 3 4 ping 64 ------- 0 3.0 2.0 -1 53
- 1.80464 3 4 ping 64 ------- 0 3.0 2.0 -1 53
r 1.805645 3 4 ping 64 ------- 0 3.0 2.0 -1 53
+ 1.805645 4 2 ping 64 ------- 0 3.0 2.0 -1 53
- 1.805645 4 2 ping 64 ------- 0 3.0 2.0 -1 53
r 1.806646 4 2 ping 64 ------- 0 3.0 2.0 -1 53
+ 1.9 0 4 ping 50000 ------- 0 0.0 5.0 -1 54
- 1.9 0 4 ping 50000 ------- 0 0.0 5.0 -1 54
+ 1.9 2 4 ping 30000 ------- 0 2.0 3.0 -1 55
- 1.9 2 4 ping 30000 ------- 0 2.0 3.0 -1 55
r 1.90124 2 4 ping 30000 ------- 0 2.0 3.0 -1 55
+ 1.90124 4 3 ping 30000 ------- 0 2.0 3.0 -1 55
- 1.90124 4 3 ping 30000 ------- 0 2.0 3.0 -1 55
r 1.9018 0 4 ping 50000 ------- 0 0.0 5.0 -1 54
+ 1.9018 4 5 ping 50000 ------- 0 0.0 5.0 -1 54
d 1.9018 4 5 ping 50000 ------- 0 0.0 5.0 -1 54
r 1.90464 4 3 ping 30000 ------- 0 2.0 3.0 -1 55
+ 1.90464 3 4 ping 64 ------- 0 3.0 2.0 -1 56
- 1.90464 3 4 ping 64 ------- 0 3.0 2.0 -1 56
r 1.905645 3 4 ping 64 ------- 0 3.0 2.0 -1 56
+ 1.905645 4 2 ping 64 ------- 0 3.0 2.0 -1 56
- 1.905645 4 2 ping 64 ------- 0 3.0 2.0 -1 56
r 1.906646 4 2 ping 64 ------- 0 3.0 2.0 -1 56
+ 2 0 4 ping 50000 ------- 0 0.0 5.0 -1 57
- 2 0 4 ping 50000 ------- 0 0.0 5.0 -1 57
+ 2 2 4 ping 30000 ------- 0 2.0 3.0 -1 58
- 2 2 4 ping 30000 ------- 0 2.0 3.0 -1 58
r 2.00124 2 4 ping 30000 ------- 0 2.0 3.0 -1 58
+ 2.00124 4 3 ping 30000 ------- 0 2.0 3.0 -1 58
- 2.00124 4 3 ping 30000 ------- 0 2.0 3.0 -1 58
r 2.0018 0 4 ping 50000 ------- 0 0.0 5.0 -1 57
+ 2.0018 4 5 ping 50000 ------- 0 0.0 5.0 -1 57
d 2.0018 4 5 ping 50000 ------- 0 0.0 5.0 -1 57
r 2.00464 4 3 ping 30000 ------- 0 2.0 3.0 -1 58
+ 2.00464 3 4 ping 64 ------- 0 3.0 2.0 -1 59
- 2.00464 3 4 ping 64 ------- 0 3.0 2.0 -1 59
r 2.005645 3 4 ping 64 ------- 0 3.0 2.0 -1 59
+ 2.005645 4 2 ping 64 ------- 0 3.0 2.0 -1 59
- 2.005645 4 2 ping 64 ------- 0 3.0 2.0 -1 59
r 2.006646 4 2 ping 64 ------- 0 3.0 2.0 -1 59
+ 2.1 0 4 ping 50000 ------- 0 0.0 5.0 -1 60
- 2.1 0 4 ping 50000 ------- 0 0.0 5.0 -1 60
+ 2.1 2 4 ping 30000 ------- 0 2.0 3.0 -1 61
- 2.1 2 4 ping 30000 ------- 0 2.0 3.0 -1 61
r 2.10124 2 4 ping 30000 ------- 0 2.0 3.0 -1 61
+ 2.10124 4 3 ping 30000 ------- 0 2.0 3.0 -1 61
- 2.10124 4 3 ping 30000 ------- 0 2.0 3.0 -1 61
r 2.1018 0 4 ping 50000 ------- 0 0.0 5.0 -1 60
+ 2.1018 4 5 ping 50000 ------- 0 0.0 5.0 -1 60
d 2.1018 4 5 ping 50000 ------- 0 0.0 5.0 -1 60
r 2.10464 4 3 ping 30000 ------- 0 2.0 3.0 -1 61
+ 2.10464 3 4 ping 64 ------- 0 3.0 2.0 -1 62
- 2.10464 3 4 ping 64 ------- 0 3.0 2.0 -1 62
r 2.105645 3 4 ping 64 ------- 0 3.0 2.0 -1 62
+ 2.105645 4 2 ping 64 ------- 0 3.0 2.0 -1 62
- 2.105645 4 2 ping 64 ------- 0 3.0 2.0 -1 62
r 2.106646 4 2 ping 64 ------- 0 3.0 2.0 -1 62
+ 2.2 0 4 ping 50000 ------- 0 0.0 5.0 -1 63
- 2.2 0 4 ping 50000 ------- 0 0.0 5.0 -1 63
+ 2.2 2 4 ping 30000 ------- 0 2.0 3.0 -1 64
- 2.2 2 4 ping 30000 ------- 0 2.0 3.0 -1 64
r 2.20124 2 4 ping 30000 ------- 0 2.0 3.0 -1 64
+ 2.20124 4 3 ping 30000 ------- 0 2.0 3.0 -1 64
- 2.20124 4 3 ping 30000 ------- 0 2.0 3.0 -1 64
r 2.2018 0 4 ping 50000 ------- 0 0.0 5.0 -1 63
+ 2.2018 4 5 ping 50000 ------- 0 0.0 5.0 -1 63
d 2.2018 4 5 ping 50000 ------- 0 0.0 5.0 -1 63
r 2.20464 4 3 ping 30000 ------- 0 2.0 3.0 -1 64
+ 2.20464 3 4 ping 64 ------- 0 3.0 2.0 -1 65
- 2.20464 3 4 ping 64 ------- 0 3.0 2.0 -1 65
r 2.205645 3 4 ping 64 ------- 0 3.0 2.0 -1 65
+ 2.205645 4 2 ping 64 ------- 0 3.0 2.0 -1 65
- 2.205645 4 2 ping 64 ------- 0 3.0 2.0 -1 65
r 2.206646 4 2 ping 64 ------- 0 3.0 2.0 -1 65
+ 2.3 0 4 ping 50000 ------- 0 0.0 5.0 -1 66
- 2.3 0 4 ping 50000 ------- 0 0.0 5.0 -1 66
+ 2.3 2 4 ping 30000 ------- 0 2.0 3.0 -1 67
- 2.3 2 4 ping 30000 ------- 0 2.0 3.0 -1 67
r 2.30124 2 4 ping 30000 ------- 0 2.0 3.0 -1 67
+ 2.30124 4 3 ping 30000 ------- 0 2.0 3.0 -1 67
- 2.30124 4 3 ping 30000 ------- 0 2.0 3.0 -1 67
r 2.3018 0 4 ping 50000 ------- 0 0.0 5.0 -1 66
+ 2.3018 4 5 ping 50000 ------- 0 0.0 5.0 -1 66
d 2.3018 4 5 ping 50000 ------- 0 0.0 5.0 -1 66
r 2.30464 4 3 ping 30000 ------- 0 2.0 3.0 -1 67
+ 2.30464 3 4 ping 64 ------- 0 3.0 2.0 -1 68
- 2.30464 3 4 ping 64 ------- 0 3.0 2.0 -1 68
r 2.305645 3 4 ping 64 ------- 0 3.0 2.0 -1 68
+ 2.305645 4 2 ping 64 ------- 0 3.0 2.0 -1 68
- 2.305645 4 2 ping 64 ------- 0 3.0 2.0 -1 68
r 2.306646 4 2 ping 64 ------- 0 3.0 2.0 -1 68
+ 2.4 0 4 ping 50000 ------- 0 0.0 5.0 -1 69
- 2.4 0 4 ping 50000 ------- 0 0.0 5.0 -1 69
+ 2.4 2 4 ping 30000 ------- 0 2.0 3.0 -1 70
- 2.4 2 4 ping 30000 ------- 0 2.0 3.0 -1 70
r 2.40124 2 4 ping 30000 ------- 0 2.0 3.0 -1 70
+ 2.40124 4 3 ping 30000 ------- 0 2.0 3.0 -1 70
- 2.40124 4 3 ping 30000 ------- 0 2.0 3.0 -1 70
r 2.4018 0 4 ping 50000 ------- 0 0.0 5.0 -1 69
+ 2.4018 4 5 ping 50000 ------- 0 0.0 5.0 -1 69
d 2.4018 4 5 ping 50000 ------- 0 0.0 5.0 -1 69
r 2.40464 4 3 ping 30000 ------- 0 2.0 3.0 -1 70
+ 2.40464 3 4 ping 64 ------- 0 3.0 2.0 -1 71
- 2.40464 3 4 ping 64 ------- 0 3.0 2.0 -1 71
r 2.405645 3 4 ping 64 ------- 0 3.0 2.0 -1 71
+ 2.405645 4 2 ping 64 ------- 0 3.0 2.0 -1 71
- 2.405645 4 2 ping 64 ------- 0 3.0 2.0 -1 71
r 2.406646 4 2 ping 64 ------- 0 3.0 2.0 -1 71
+ 2.5 0 4 ping 50000 ------- 0 0.0 5.0 -1 72
- 2.5 0 4 ping 50000 ------- 0 0.0 5.0 -1 72
+ 2.5 2 4 ping 30000 ------- 0 2.0 3.0 -1 73
- 2.5 2 4 ping 30000 ------- 0 2.0 3.0 -1 73
r 2.50124 2 4 ping 30000 ------- 0 2.0 3.0 -1 73
+ 2.50124 4 3 ping 30000 ------- 0 2.0 3.0 -1 73
- 2.50124 4 3 ping 30000 ------- 0 2.0 3.0 -1 73
r 2.5018 0 4 ping 50000 ------- 0 0.0 5.0 -1 72
+ 2.5018 4 5 ping 50000 ------- 0 0.0 5.0 -1 72
d 2.5018 4 5 ping 50000 ------- 0 0.0 5.0 -1 72
r 2.50464 4 3 ping 30000 ------- 0 2.0 3.0 -1 73
+ 2.50464 3 4 ping 64 ------- 0 3.0 2.0 -1 74
- 2.50464 3 4 ping 64 ------- 0 3.0 2.0 -1 74
r 2.505645 3 4 ping 64 ------- 0 3.0 2.0 -1 74
+ 2.505645 4 2 ping 64 ------- 0 3.0 2.0 -1 74
- 2.505645 4 2 ping 64 ------- 0 3.0 2.0 -1 74
r 2.506646 4 2 ping 64 ------- 0 3.0 2.0 -1 74
+ 2.6 0 4 ping 50000 ------- 0 0.0 5.0 -1 75
- 2.6 0 4 ping 50000 ------- 0 0.0 5.0 -1 75
+ 2.6 2 4 ping 30000 ------- 0 2.0 3.0 -1 76
- 2.6 2 4 ping 30000 ------- 0 2.0 3.0 -1 76
r 2.60124 2 4 ping 30000 ------- 0 2.0 3.0 -1 76
+ 2.60124 4 3 ping 30000 ------- 0 2.0 3.0 -1 76
- 2.60124 4 3 ping 30000 ------- 0 2.0 3.0 -1 76
r 2.6018 0 4 ping 50000 ------- 0 0.0 5.0 -1 75
+ 2.6018 4 5 ping 50000 ------- 0 0.0 5.0 -1 75
d 2.6018 4 5 ping 50000 ------- 0 0.0 5.0 -1 75
r 2.60464 4 3 ping 30000 ------- 0 2.0 3.0 -1 76
+ 2.60464 3 4 ping 64 ------- 0 3.0 2.0 -1 77
- 2.60464 3 4 ping 64 ------- 0 3.0 2.0 -1 77
r 2.605645 3 4 ping 64 ------- 0 3.0 2.0 -1 77
+ 2.605645 4 2 ping 64 ------- 0 3.0 2.0 -1 77
- 2.605645 4 2 ping 64 ------- 0 3.0 2.0 -1 77
r 2.606646 4 2 ping 64 ------- 0 3.0 2.0 -1 77
+ 2.7 0 4 ping 50000 ------- 0 0.0 5.0 -1 78
- 2.7 0 4 ping 50000 ------- 0 0.0 5.0 -1 78
+ 2.7 2 4 ping 30000 ------- 0 2.0 3.0 -1 79
- 2.7 2 4 ping 30000 ------- 0 2.0 3.0 -1 79
r 2.70124 2 4 ping 30000 ------- 0 2.0 3.0 -1 79
+ 2.70124 4 3 ping 30000 ------- 0 2.0 3.0 -1 79
- 2.70124 4 3 ping 30000 ------- 0 2.0 3.0 -1 79
r 2.7018 0 4 ping 50000 ------- 0 0.0 5.0 -1 78
+ 2.7018 4 5 ping 50000 ------- 0 0.0 5.0 -1 78
d 2.7018 4 5 ping 50000 ------- 0 0.0 5.0 -1 78
r 2.70464 4 3 ping 30000 ------- 0 2.0 3.0 -1 79
+ 2.70464 3 4 ping 64 ------- 0 3.0 2.0 -1 80
- 2.70464 3 4 ping 64 ------- 0 3.0 2.0 -1 80
r 2.705645 3 4 ping 64 ------- 0 3.0 2.0 -1 80
+ 2.705645 4 2 ping 64 ------- 0 3.0 2.0 -1 80
- 2.705645 4 2 ping 64 ------- 0 3.0 2.0 -1 80
r 2.706646 4 2 ping 64 ------- 0 3.0 2.0 -1 80
+ 2.8 0 4 ping 50000 ------- 0 0.0 5.0 -1 81
- 2.8 0 4 ping 50000 ------- 0 0.0 5.0 -1 81
+ 2.8 2 4 ping 30000 ------- 0 2.0 3.0 -1 82
- 2.8 2 4 ping 30000 ------- 0 2.0 3.0 -1 82
r 2.80124 2 4 ping 30000 ------- 0 2.0 3.0 -1 82
+ 2.80124 4 3 ping 30000 ------- 0 2.0 3.0 -1 82
- 2.80124 4 3 ping 30000 ------- 0 2.0 3.0 -1 82
r 2.8018 0 4 ping 50000 ------- 0 0.0 5.0 -1 81
+ 2.8018 4 5 ping 50000 ------- 0 0.0 5.0 -1 81
d 2.8018 4 5 ping 50000 ------- 0 0.0 5.0 -1 81
r 2.80464 4 3 ping 30000 ------- 0 2.0 3.0 -1 82
+ 2.80464 3 4 ping 64 ------- 0 3.0 2.0 -1 83
- 2.80464 3 4 ping 64 ------- 0 3.0 2.0 -1 83
r 2.805645 3 4 ping 64 ------- 0 3.0 2.0 -1 83
+ 2.805645 4 2 ping 64 ------- 0 3.0 2.0 -1 83
- 2.805645 4 2 ping 64 ------- 0 3.0 2.0 -1 83
r 2.806646 4 2 ping 64 ------- 0 3.0 2.0 -1 83
+ 2.9 0 4 ping 50000 ------- 0 0.0 5.0 -1 84
- 2.9 0 4 ping 50000 ------- 0 0.0 5.0 -1 84
+ 2.9 2 4 ping 30000 ------- 0 2.0 3.0 -1 85
- 2.9 2 4 ping 30000 ------- 0 2.0 3.0 -1 85
r 2.90124 2 4 ping 30000 ------- 0 2.0 3.0 -1 85
+ 2.90124 4 3 ping 30000 ------- 0 2.0 3.0 -1 85
- 2.90124 4 3 ping 30000 ------- 0 2.0 3.0 -1 85
r 2.9018 0 4 ping 50000 ------- 0 0.0 5.0 -1 84
+ 2.9018 4 5 ping 50000 ------- 0 0.0 5.0 -1 84
d 2.9018 4 5 ping 50000 ------- 0 0.0 5.0 -1 84
r 2.90464 4 3 ping 30000 ------- 0 2.0 3.0 -1 85
+ 2.90464 3 4 ping 64 ------- 0 3.0 2.0 -1 86
- 2.90464 3 4 ping 64 ------- 0 3.0 2.0 -1 86
r 2.905645 3 4 ping 64 ------- 0 3.0 2.0 -1 86
+ 2.905645 4 2 ping 64 ------- 0 3.0 2.0 -1 86
- 2.905645 4 2 ping 64 ------- 0 3.0 2.0 -1 86
r 2.906646 4 2 ping 64 ------- 0 3.0 2.0 -1 86
